# vtk DataFile Version 3.0
VTK
ASCII
DATASET STRUCTURED_POINTS
DIMENSIONS                             128 128 1
ORIGIN                                 0 0 0
SPACING                                1 1 1
POINT_DATA                             16384
SCALARS  scalars  float                1
LOOKUP_TABLE default
0.028235
 0.032052
 0.039950
 0.033878
 0.022149
 0.006226
 0.004680
 -0.006308
 -0.020356
 -0.026378
 0.008622
 0.035308
 0.038897
 0.022291
 0.011726
 0.000966
 -0.003794
 -0.008619
 0.000791
 -0.008307
 -0.021219
 -0.001806
 0.030578
 0.018309
 -0.015296
 -0.015936
 -0.012900
 0.013747
 0.001344
 -0.020579
 -0.022814
 0.010169
 0.016009
 -0.008946
 0.002648
 0.013976
 -0.000501
 -0.002861
 0.018696
 0.000829
 -0.014877
 0.014731
 0.014611
 -0.009363
 -0.005666
 0.002444
 0.008757
 0.017440
 0.007471
 -0.009010
 -0.006166
 0.003176
 -0.003100
 -0.004157
 0.009791
 0.009406
 -0.002721
 0.010121
 0.001416
 -0.010182
 -0.007103
 -0.005729
 -0.024993
 -0.019614
 -0.004501
 0.012069
 0.002387
 -0.006117
 0.021388
 0.019022
 -0.009195
 0.003522
 0.016230
 0.002264
 -0.008991
 -0.026155
 -0.021857
 -0.000069
 0.023396
 0.013549
 0.003659
 0.015956
 0.015413
 -0.020627
 -0.028330
 -0.017025
 0.001021
 -0.008456
 -0.010132
 -0.009771
 -0.002271
 0.028498
 0.036886
 0.013231
 -0.019859
 -0.018235
 -0.001592
 0.004797
 -0.004156
 -0.004942
 0.004046
 0.001585
 -0.014834
 -0.018029
 -0.027258
 -0.003307
 0.014902
 0.005371
 0.006980
 0.008665
 0.013993
 0.000743
 -0.001799
 -0.001335
 -0.015410
 0.002099
 0.030583
 0.032207
 0.011192
 -0.009107
 -0.002842
 0.016912
 -0.010972
 -0.030183
 -0.009366
 0.000277
 0.006486
 0.018574
 0.099647
 0.103002
 0.098361
 0.065039
 0.025581
 0.016050
 0.020533
 0.019529
 -0.008421
 -0.035486
 -0.033763
 -0.010779
 0.010499
 0.004505
 -0.011419
 0.000689
 0.015772
 -0.001100
 -0.017310
 -0.009891
 0.016206
 0.034059
 0.025835
 -0.010622
 -0.014447
 -0.019206
 -0.002835
 0.033031
 0.025004
 -0.021148
 -0.034076
 -0.008447
 -0.010729
 -0.008204
 -0.005163
 0.017113
 0.021711
 0.022465
 0.008879
 -0.019299
 -0.028966
 0.004768
 0.020738
 0.011984
 -0.002439
 0.008005
 0.001573
 -0.007785
 -0.011267
 -0.005641
 0.004757
 0.000726
 -0.010711
 -0.016072
 -0.008388
 0.013295
 0.010941
 0.009933
 0.014001
 0.004377
 0.017763
 0.022458
 -0.007874
 -0.017657
 -0.012438
 0.015545
 0.009003
 0.011972
 0.028899
 0.013792
 -0.023728
 -0.013089
 0.008074
 0.031300
 0.023232
 -0.006135
 0.000740
 0.016005
 0.020944
 0.029492
 0.021064
 0.026613
 0.018785
 -0.005093
 -0.018448
 -0.019811
 -0.001040
 0.004905
 0.006377
 0.027213
 0.023505
 0.022640
 0.015350
 -0.002983
 -0.021464
 -0.014365
 -0.005953
 0.002333
 -0.010117
 -0.002815
 -0.008122
 -0.010614
 -0.010439
 -0.018290
 -0.031127
 -0.018764
 0.000707
 0.003514
 -0.011658
 -0.008223
 0.015695
 0.017591
 0.009011
 -0.015724
 -0.031343
 -0.008135
 0.022981
 0.027934
 0.005758
 0.007437
 0.017615
 0.029114
 0.000586
 -0.041250
 -0.029130
 0.028244
 0.074304
 0.095166
 -0.467817
 -0.308998
 -0.010068
 0.077547
 0.015261
 -0.008932
 0.012152
 0.005862
 -0.019506
 -0.028620
 -0.032503
 -0.031597
 -0.022113
 -0.001972
 0.003249
 0.014122
 0.026078
 0.000547
 -0.008857
 -0.013667
 0.022847
 0.042730
 -0.007547
 -0.036332
 -0.024704
 -0.016043
 0.009457
 0.022947
 0.021441
 -0.019673
 -0.009516
 0.009850
 -0.013050
 -0.031568
 -0.020105
 0.004551
 0.018817
 0.028536
 0.002798
 -0.005346
 -0.010778
 -0.004875
 0.009846
 0.006314
 0.014840
 0.012150
 0.005569
 -0.011291
 -0.010061
 0.007255
 0.017587
 0.017291
 0.000082
 -0.028670
 -0.035278
 -0.023441
 -0.008383
 -0.004011
 -0.000850
 -0.008592
 0.004221
 0.030291
 0.020473
 -0.008916
 -0.017990
 -0.007266
 -0.015070
 -0.000496
 0.019972
 0.003213
 -0.029920
 -0.022557
 0.024161
 0.042586
 0.043966
 0.036959
 0.020191
 0.009791
 0.016378
 0.027026
 0.029129
 0.017217
 0.017155
 0.005679
 -0.011369
 -0.033336
 -0.033790
 -0.015492
 0.029292
 0.038904
 0.006015
 -0.012568
 -0.006550
 -0.001514
 -0.002427
 0.006370
 0.004103
 0.005121
 -0.000794
 -0.002214
 -0.006851
 -0.002254
 0.005695
 -0.000942
 -0.011144
 -0.014413
 -0.009215
 0.002240
 0.017401
 0.016592
 0.023775
 0.027576
 0.006109
 -0.009182
 -0.009789
 0.011034
 0.012232
 0.008540
 0.014099
 0.010299
 0.014864
 0.020642
 0.005217
 -0.036850
 -0.006350
 0.064419
 -0.005775
 -0.294450
 -1.638118
 -1.459215
 -0.799233
 -0.036371
 0.049433
 -0.016691
 -0.018475
 -0.011825
 -0.018699
 -0.014247
 0.007629
 -0.007573
 -0.002590
 0.015119
 0.015580
 0.014975
 0.010175
 0.009960
 -0.001216
 -0.018104
 0.021771
 0.036584
 -0.019609
 -0.048866
 -0.025661
 0.007926
 0.004582
 -0.002912
 -0.008796
 -0.018053
 0.015242
 0.023689
 -0.010025
 -0.027078
 -0.014875
 -0.009336
 -0.000159
 0.023932
 0.031409
 0.023222
 0.018142
 0.003686
 -0.027508
 -0.015653
 0.019488
 0.018854
 -0.015551
 -0.021273
 0.004377
 0.025146
 0.014717
 0.019864
 0.018887
 -0.017151
 -0.035789
 -0.033614
 -0.001834
 0.000840
 -0.007975
 -0.001594
 0.012475
 0.009087
 -0.000652
 -0.013171
 -0.023980
 -0.015938
 -0.021860
 -0.018058
 -0.007914
 0.003987
 -0.010858
 -0.010241
 0.017643
 0.019119
 0.023996
 0.031578
 -0.002632
 -0.018844
 0.004362
 0.014480
 0.005941
 -0.014913
 -0.002488
 0.007085
 -0.000883
 -0.024131
 -0.042009
 -0.031147
 0.008706
 0.017457
 -0.018190
 -0.020944
 -0.023909
 -0.021210
 -0.004190
 -0.000497
 -0.004953
 -0.005878
 0.002301
 0.008498
 0.012080
 -0.005607
 0.013740
 0.020970
 0.004023
 -0.006605
 0.009657
 0.024698
 0.025090
 0.021064
 0.017814
 0.016789
 0.006469
 -0.015874
 0.014665
 0.025917
 0.000236
 -0.025770
 -0.007994
 -0.001649
 0.017845
 0.019164
 -0.007990
 -0.017699
 0.070649
 -0.043988
 -0.798573
 -1.456096
 -2.281580
 -2.139426
 -1.632543
 -0.574588
 0.072639
 0.019720
 -0.023233
 -0.026139
 -0.015392
 0.004844
 0.014545
 0.024951
 0.020222
 0.008590
 -0.021505
 -0.027628
 -0.015666
 -0.017381
 -0.019210
 -0.019505
 0.008974
 0.028705
 -0.002341
 -0.022499
 -0.005174
 0.026972
 0.026495
 -0.005885
 -0.021263
 -0.013626
 0.004046
 0.003033
 -0.021531
 -0.013573
 -0.009700
 -0.008141
 -0.010485
 0.020831
 0.026470
 0.011061
 0.018071
 0.006753
 -0.018937
 -0.016620
 0.012008
 -0.004365
 -0.017249
 -0.008744
 0.009108
 0.034046
 0.044206
 0.041446
 0.019992
 -0.008820
 -0.018955
 -0.011896
 -0.000211
 -0.006092
 -0.008283
 0.008456
 0.029939
 0.026792
 -0.004152
 -0.012216
 -0.010023
 0.004840
 0.009278
 -0.003696
 0.002783
 0.008433
 -0.005231
 -0.019831
 -0.029031
 -0.015430
 0.017465
 0.042390
 0.018980
 0.008315
 0.029769
 0.036819
 0.020063
 0.008236
 0.024222
 0.024885
 0.006138
 0.005421
 0.005981
 -0.013988
 -0.009243
 -0.006652
 -0.025256
 -0.018057
 -0.010184
 -0.020887
 -0.005308
 0.006291
 -0.013254
 -0.009573
 -0.001914
 0.012294
 -0.001666
 -0.009227
 -0.017417
 -0.012979
 -0.020609
 -0.015221
 -0.004089
 0.008788
 0.000915
 -0.012630
 0.000088
 0.018865
 0.002672
 -0.020120
 -0.000384
 0.017560
 -0.009022
 -0.041757
 -0.038312
 -0.000395
 0.005880
 -0.010199
 -0.023532
 0.016170
 0.073688
 -0.575583
 -1.627102
 -2.136007
 -2.792395
 -2.642035
 -2.124056
 -1.326537
 -0.070365
 0.072060
 -0.018765
 -0.032003
 -0.001795
 0.007923
 0.001957
 0.013843
 0.020702
 0.002693
 -0.020601
 -0.025001
 -0.025447
 -0.027507
 -0.024365
 -0.018310
 0.008861
 0.012725
 -0.002035
 0.004425
 -0.002407
 0.017781
 0.013106
 0.003152
 -0.004775
 0.000487
 0.011627
 -0.008936
 -0.039263
 -0.040090
 -0.025259
 -0.005903
 -0.003269
 -0.006165
 -0.002721
 -0.006712
 0.013242
 0.022069
 0.013540
 0.001073
 -0.010414
 -0.022923
 0.000325
 0.006691
 -0.008242
 0.018749
 0.040784
 0.041303
 0.014140
 -0.013992
 -0.001003
 0.014780
 0.015355
 -0.017708
 -0.017868
 0.004078
 0.022802
 0.030892
 0.012971
 -0.009090
 -0.006129
 0.010766
 0.013446
 0.001770
 -0.005571
 0.004979
 -0.011395
 -0.027823
 -0.036491
 0.011333
 0.068303
 -0.008250
 -0.223969
 -0.446691
 -0.519177
 -0.398608
 -0.200886
 -0.019473
 0.069686
 0.060894
 0.022822
 0.026171
 0.028539
 0.009447
 -0.012022
 0.001569
 -0.014795
 0.006517
 0.016480
 -0.017377
 -0.017950
 -0.002054
 0.005788
 0.000875
 -0.014311
 0.003897
 -0.003519
 -0.016897
 -0.013755
 -0.017996
 -0.028358
 -0.017395
 0.007143
 -0.000871
 -0.023374
 -0.035914
 0.004630
 0.042823
 0.026924
 0.004588
 0.001790
 -0.017024
 -0.015272
 -0.015606
 -0.028960
 -0.008641
 0.000247
 -0.014875
 0.012623
 0.079481
 -0.081746
 -1.308333
 -2.109129
 -2.634792
 -3.145862
 -3.013969
 -2.472351
 -1.773079
 -0.402884
 0.119878
 0.021475
 -0.031958
 -0.012736
 0.007131
 -0.000163
 -0.009617
 0.004050
 0.001038
 0.019317
 0.019924
 -0.000500
 0.009816
 0.011099
 0.012248
 0.022967
 0.004741
 -0.014647
 0.003611
 0.015965
 0.013293
 -0.005139
 -0.019117
 -0.010784
 0.006727
 0.032339
 0.010018
 -0.028808
 -0.041475
 -0.026888
 0.003515
 0.015369
 -0.004137
 -0.000557
 -0.001339
 0.003267
 -0.007790
 -0.002233
 0.004824
 -0.012605
 -0.019301
 0.008832
 0.001603
 -0.035732
 -0.028189
 -0.004393
 0.020183
 0.009992
 -0.006131
 0.004144
 0.009024
 0.008026
 -0.020631
 -0.011579
 -0.006549
 -0.010774
 -0.007135
 -0.015676
 -0.012681
 -0.004580
 0.025447
 0.013025
 -0.009968
 -0.014416
 0.008997
 0.003599
 -0.013360
 0.002155
 -0.090655
 -0.629953
 -1.546498
 -2.204971
 -2.518257
 -2.607723
 -2.508239
 -2.186650
 -1.544377
 -0.681433
 -0.128023
 0.021557
 0.019360
 0.001899
 -0.021290
 -0.008542
 0.005249
 0.008445
 0.024799
 0.034653
 0.009652
 -0.003206
 0.017148
 0.021728
 0.007405
 -0.017646
 0.001464
 0.020225
 0.027595
 0.030714
 0.022378
 0.003000
 0.008143
 0.018248
 -0.000993
 -0.034907
 -0.033327
 0.012159
 0.046573
 0.037147
 0.019854
 -0.009292
 -0.023153
 -0.006501
 0.013534
 0.007580
 0.017507
 0.000041
 -0.001431
 0.032465
 0.133568
 -0.343322
 -1.722567
 -2.440246
 -2.999450
 -3.367113
 -3.247856
 -2.713507
 -2.048011
 -0.805330
 0.123684
 0.055740
 -0.016337
 -0.032252
 -0.021730
 -0.003959
 -0.013042
 -0.018955
 -0.010270
 0.012635
 0.011815
 0.021005
 0.033333
 0.017654
 0.010429
 0.007342
 0.006928
 -0.019892
 -0.002784
 0.037272
 0.029336
 -0.007795
 -0.032089
 -0.013641
 0.016615
 0.024418
 0.007368
 -0.016629
 -0.003223
 -0.011995
 0.011274
 0.033777
 0.021033
 0.012029
 0.009526
 -0.020059
 -0.027440
 -0.026680
 -0.005116
 0.004985
 -0.009968
 0.020071
 0.011540
 -0.040247
 -0.048377
 -0.023348
 -0.007133
 -0.003421
 0.012140
 0.016566
 -0.004226
 -0.014580
 -0.015950
 -0.005394
 0.000706
 -0.015058
 -0.017461
 -0.010647
 -0.003472
 0.015398
 0.023103
 0.007380
 -0.002190
 0.006097
 0.011636
 0.025800
 0.015996
 -0.298035
 -1.449453
 -2.539562
 -3.099262
 -3.460810
 -3.674132
 -3.743925
 -3.671887
 -3.458165
 -3.099990
 -2.551238
 -1.511419
 -0.320318
 0.026277
 0.011240
 -0.014649
 -0.004819
 0.012080
 0.004804
 0.025732
 0.037011
 0.027403
 0.024113
 0.034330
 0.023516
 -0.005818
 -0.009433
 0.006417
 0.028137
 0.040441
 0.036288
 0.030504
 0.025594
 0.019691
 0.035086
 0.023515
 -0.010569
 -0.014184
 0.010289
 0.001414
 -0.008791
 -0.018344
 -0.011981
 -0.019164
 -0.011039
 0.022862
 0.040775
 0.038862
 0.014700
 -0.020338
 0.029279
 0.148749
 -0.588347
 -1.945396
 -2.649985
 -3.219238
 -3.517469
 -3.381918
 -2.884007
 -2.256940
 -1.205117
 0.050160
 0.081412
 0.015100
 -0.011175
 -0.031647
 -0.028415
 -0.016841
 -0.018601
 -0.022718
 -0.017919
 -0.012752
 -0.003939
 0.013729
 0.004729
 -0.021432
 -0.025899
 -0.012789
 -0.005122
 0.009925
 0.031796
 0.020708
 -0.020092
 -0.025230
 0.015811
 0.025118
 -0.000222
 -0.021762
 -0.006093
 0.011530
 -0.006519
 0.016914
 0.026383
 -0.003118
 0.004807
 0.008232
 -0.005335
 -0.001732
 -0.012864
 0.000780
 0.017050
 0.011385
 0.030588
 0.030308
 -0.016573
 -0.025033
 -0.020678
 -0.016167
 0.008329
 0.030581
 0.030039
 0.007410
 -0.007756
 -0.014821
 0.001661
 0.004346
 0.007626
 0.013992
 0.010098
 0.008127
 0.005532
 -0.005960
 -0.009426
 -0.010564
 0.010828
 0.026820
 0.071551
 -0.264186
 -1.754559
 -2.882245
 -3.554061
 -4.041576
 -4.382651
 -4.588162
 -4.656987
 -4.587653
 -4.382182
 -4.042131
 -3.556801
 -2.886649
 -1.754640
 -0.258734
 0.060609
 0.029067
 0.016960
 -0.003181
 -0.003389
 0.017994
 0.018524
 0.011544
 0.025825
 0.028314
 0.003476
 -0.006791
 0.005938
 0.001105
 0.010371
 0.010153
 -0.006983
 0.003947
 0.015247
 0.013416
 0.009427
 0.011206
 0.006761
 0.009262
 -0.013930
 -0.033165
 -0.045133
 -0.030889
 -0.016411
 -0.034170
 -0.033940
 -0.003407
 0.025537
 0.025691
 -0.003120
 -0.021072
 0.034679
 0.140923
 -0.745519
 -2.058678
 -2.761573
 -3.324807
 -3.547532
 -3.480020
 -3.029022
 -2.444667
 -1.582247
 -0.117670
 0.074570
 0.011392
 -0.007082
 -0.007824
 -0.012793
 -0.006929
 0.020594
 0.017165
 -0.009532
 -0.002549
 -0.004576
 0.004554
 -0.003519
 -0.022833
 -0.030889
 -0.026004
 0.000566
 0.014588
 0.007808
 -0.001547
 -0.015360
 0.005181
 0.027647
 0.043984
 0.020351
 -0.011353
 0.008339
 0.019308
 -0.004870
 -0.002677
 -0.006186
 -0.009780
 -0.002950
 0.010118
 0.024960
 0.029814
 0.027444
 0.021766
 0.019158
 0.029476
 0.042838
 0.041172
 0.013097
 0.014181
 -0.007657
 -0.018775
 -0.009807
 0.027312
 0.012186
 -0.011302
 -0.011532
 -0.005825
 -0.009023
 -0.011003
 -0.004149
 -0.000386
 0.013195
 0.009898
 0.003218
 -0.005840
 -0.007999
 -0.006991
 -0.005510
 0.046919
 -0.055789
 -1.452112
 -2.882954
 -3.700024
 -4.326258
 -4.815960
 -5.178579
 -5.404661
 -5.481779
 -5.404506
 -5.178402
 -4.815929
 -4.326292
 -3.699256
 -2.878958
 -1.438560
 -0.076644
 0.040855
 0.008432
 -0.014463
 -0.021161
 -0.002129
 0.018691
 0.019315
 0.015232
 0.009827
 -0.011565
 0.001984
 0.011436
 0.011812
 -0.000319
 -0.010126
 -0.019414
 -0.014283
 -0.001773
 -0.021470
 -0.029152
 -0.017128
 0.002414
 -0.005848
 -0.013731
 -0.027052
 -0.017832
 -0.003096
 0.006653
 -0.020526
 -0.010084
 0.000209
 -0.013329
 -0.020092
 -0.029545
 -0.027836
 0.026635
 0.111821
 -0.778552
 -2.092756
 -2.798617
 -3.361751
 -3.611306
 -3.573287
 -3.180774
 -2.613321
 -1.855512
 -0.405164
 0.054267
 -0.025800
 -0.020378
 0.015795
 0.018661
 0.017978
 0.035789
 0.026726
 0.000777
 -0.014742
 0.003410
 0.022647
 0.019189
 0.010081
 0.006917
 -0.013845
 -0.016940
 0.009034
 0.018622
 -0.008928
 -0.003208
 0.014275
 0.022662
 0.042164
 0.032852
 0.004326
 0.010907
 0.019000
 0.007767
 0.000905
 -0.007937
 0.007903
 0.012381
 0.002031
 0.015105
 0.017265
 0.015048
 0.007311
 -0.001659
 0.009140
 0.037038
 0.037568
 0.012693
 0.018285
 0.007828
 -0.023706
 -0.020372
 0.015238
 0.005033
 -0.026877
 -0.026858
 -0.018440
 -0.008240
 -0.018888
 -0.032954
 -0.010365
 0.011820
 0.003617
 -0.011526
 -0.011279
 0.004824
 -0.005426
 -0.001107
 0.044074
 -0.639433
 -2.541205
 -3.554418
 -4.326295
 -4.965241
 -5.498093
 -5.915083
 -6.186848
 -6.281920
 -6.186753
 -5.914901
 -5.497784
 -4.964591
 -4.324686
 -3.550372
 -2.529962
 -0.632942
 0.052398
 -0.006226
 -0.018478
 0.002318
 -0.014416
 -0.005678
 0.014652
 0.005656
 -0.012338
 -0.033959
 -0.018769
 0.018158
 0.020373
 0.010402
 0.002675
 -0.022790
 -0.026439
 -0.018601
 -0.014006
 -0.029517
 -0.022529
 -0.001038
 -0.000834
 -0.006097
 -0.003855
 0.006641
 0.017325
 0.001741
 0.002944
 0.022675
 0.014623
 -0.005321
 -0.020000
 -0.019113
 -0.025329
 0.009580
 0.115339
 -0.703787
 -2.060042
 -2.774777
 -3.339583
 -3.606969
 -3.614962
 -3.315772
 -2.737464
 -2.013923
 -0.674542
 0.064569
 -0.013746
 -0.004407
 0.007149
 0.011080
 0.003241
 0.014691
 0.001488
 -0.026583
 -0.035524
 -0.014744
 0.014452
 0.006330
 0.013539
 0.028748
 0.006621
 -0.012497
 0.021237
 0.025045
 -0.009474
 -0.003313
 0.005073
 0.001635
 0.011306
 0.012092
 0.009805
 0.002437
 0.012629
 0.003639
 0.013759
 0.023406
 0.018397
 0.021517
 0.021154
 0.012512
 -0.003922
 -0.015364
 -0.014471
 -0.018060
 -0.017446
 0.016177
 0.026285
 -0.003606
 0.000831
 -0.003621
 0.002022
 0.004098
 0.021728
 0.025397
 -0.006289
 -0.016123
 -0.011640
 -0.015664
 -0.025447
 -0.027608
 -0.012554
 -0.013131
 -0.002655
 -0.002109
 -0.015270
 -0.014358
 -0.005622
 0.018670
 -0.024924
 -1.543631
 -3.098215
 -4.041262
 -4.815827
 -5.498041
 -6.105970
 -6.619671
 -6.979144
 -7.110374
 -6.979062
 -6.619483
 -6.105603
 -5.497311
 -4.814323
 -4.038087
 -3.091306
 -1.511744
 -0.012726
 0.004278
 -0.003914
 0.010519
 -0.002719
 -0.018489
 -0.019345
 0.003718
 -0.010929
 -0.027197
 -0.025525
 0.003541
 0.006091
 -0.005946
 -0.011482
 -0.012404
 -0.020668
 -0.005266
 -0.007699
 0.000410
 -0.015021
 -0.008225
 0.021464
 0.025070
 0.011227
 -0.011550
 -0.018381
 -0.010394
 -0.002769
 0.007284
 -0.003817
 0.013800
 0.012295
 -0.021220
 -0.026562
 0.010678
 0.107573
 -0.533295
 -1.960522
 -2.694116
 -3.266411
 -3.577084
 -3.634723
 -3.379747
 -2.785968
 -2.070121
 -0.799072
 0.088887
 0.018422
 -0.000320
 0.006741
 0.013574
 0.002659
 0.004824
 -0.010164
 -0.029108
 -0.019777
 -0.012010
 0.002243
 0.008401
 0.018523
 0.029462
 0.011578
 -0.001106
 0.016442
 0.021055
 -0.006827
 -0.019290
 -0.035423
 -0.026220
 0.001476
 -0.002420
 -0.009480
 0.001008
 0.003694
 0.007383
 0.000403
 0.002789
 -0.005496
 0.015294
 0.016870
 0.020225
 0.032097
 0.020628
 -0.014812
 -0.031288
 -0.032721
 0.005089
 0.014614
 -0.013099
 -0.018644
 0.005728
 0.018344
 0.032086
 0.042945
 0.037127
 0.003811
 -0.026291
 -0.022877
 -0.010673
 -0.003295
 0.015939
 0.000115
 0.003410
 0.005956
 0.006199
 -0.003196
 -0.017143
 -0.004853
 0.052527
 -0.178690
 -2.191594
 -3.458327
 -4.381894
 -5.178303
 -5.914982
 -6.619644
 -7.289435
 -7.827084
 -8.041191
 -7.827016
 -7.289269
 -6.619317
 -5.914368
 -5.177158
 -4.379738
 -3.453795
 -2.178023
 -0.187973
 0.015066
 -0.020367
 0.008006
 0.008251
 -0.016335
 -0.029705
 -0.013244
 0.013689
 0.016141
 0.005991
 0.005023
 0.004292
 -0.008530
 -0.023661
 -0.028712
 -0.015224
 -0.015145
 -0.006492
 0.010011
 0.002010
 0.014603
 0.030538
 0.015644
 -0.005580
 -0.028409
 -0.021220
 -0.001946
 0.011896
 -0.014996
 -0.028961
 0.002130
 0.009512
 -0.017893
 -0.029488
 0.008979
 0.089080
 -0.305406
 -1.775583
 -2.552323
 -3.141122
 -3.445516
 -3.538715
 -3.335027
 -2.727023
 -2.014753
 -0.751099
 0.111140
 0.010991
 -0.026969
 0.010865
 0.015486
 0.013369
 0.015227
 -0.011110
 -0.010836
 0.003960
 0.009626
 0.025833
 0.023827
 0.003885
 0.012240
 0.017011
 0.023953
 0.023756
 0.001107
 -0.005554
 -0.029453
 -0.042258
 -0.013933
 0.015771
 0.004403
 -0.029825
 -0.014401
 0.013301
 -0.001635
 -0.020924
 -0.033159
 -0.026731
 -0.007140
 -0.005694
 0.019104
 0.043509
 0.034835
 0.004148
 -0.030372
 -0.028215
 -0.003239
 -0.004460
 -0.034347
 -0.019843
 0.019113
 0.027592
 0.024800
 0.028372
 0.027075
 -0.015397
 -0.036269
 -0.033743
 -0.019514
 0.014179
 0.026165
 0.018721
 0.019363
 0.014421
 0.017824
 0.011081
 -0.016639
 -0.027548
 0.043033
 -0.392126
 -2.509649
 -3.671719
 -4.587320
 -5.404340
 -6.186735
 -6.979120
 -7.827089
 -8.774791
 -9.247730
 -8.774738
 -7.826953
 -6.978856
 -6.186275
 -5.403572
 -4.586043
 -3.669371
 -2.504324
 -0.398136
 0.031969
 -0.008144
 0.010335
 -0.002163
 -0.013409
 -0.029972
 -0.017271
 0.015592
 0.041518
 0.031951
 0.020053
 0.029248
 0.013805
 -0.016111
 -0.033137
 -0.017103
 0.013029
 0.023652
 0.008937
 -0.015856
 0.007684
 0.025802
 0.008493
 -0.025522
 -0.029643
 -0.000238
 0.014065
 0.021469
 0.011889
 -0.017831
 -0.014365
 0.013129
 0.004094
 -0.020219
 -0.012084
 0.066346
 -0.064268
 -1.447920
 -2.337171
 -2.948075
 -3.174846
 -3.242892
 -3.109888
 -2.525617
 -1.821151
 -0.505777
 0.114461
 -0.010024
 -0.044252
 0.004622
 0.025871
 0.007229
 0.001374
 -0.015476
 -0.001474
 0.015526
 0.013698
 0.013165
 0.017483
 0.005487
 -0.011054
 -0.001068
 0.011155
 0.004917
 0.000636
 0.005998
 -0.003187
 -0.008984
 -0.002865
 0.011999
 0.016421
 -0.019484
 -0.009912
 0.019189
 0.023528
 0.004212
 -0.005811
 -0.004727
 -0.003165
 -0.005500
 -0.006627
 0.013902
 0.019452
 -0.005752
 0.003744
 0.012409
 0.018380
 -0.004148
 -0.026728
 -0.009295
 0.016145
 -0.002046
 -0.025050
 -0.017543
 -0.002103
 -0.006244
 -0.013276
 0.011161
 0.002182
 0.000138
 -0.005810
 -0.009792
 -0.003186
 0.000092
 0.006084
 0.003692
 -0.026350
 -0.040114
 0.043571
 -0.494451
 -2.603888
 -3.742381
 -4.656307
 -5.481501
 -6.281839
 -7.110383
 -8.041226
 -9.247755
 -9.096146
 -9.247710
 -8.041111
 -7.110170
 -6.281503
 -5.481036
 -4.655763
 -3.741956
 -2.603955
 -0.481243
 0.066981
 -0.000573
 -0.004882
 -0.009367
 -0.013479
 -0.012291
 -0.009415
 0.005835
 0.018412
 0.011435
 0.011660
 0.018752
 0.015781
 -0.005007
 -0.018307
 0.011781
 0.028060
 0.032985
 0.012810
 -0.024456
 -0.019895
 0.019263
 0.023251
 -0.003133
 -0.012564
 -0.011024
 0.004446
 0.012324
 0.017404
 0.006902
 -0.013945
 -0.018747
 -0.023926
 -0.022918
 -0.023961
 0.040238
 0.101140
 -0.887807
 -2.029991
 -2.660243
 -2.688291
 -2.845437
 -2.649816
 -2.152978
 -1.420216
 -0.162166
 0.090418
 -0.019295
 -0.039745
 0.005116
 0.017290
 0.007243
 -0.017982
 -0.021814
 -0.010161
 0.002817
 0.002241
 -0.019382
 -0.000703
 0.017605
 -0.006844
 -0.025711
 -0.015427
 -0.018686
 -0.021460
 0.011880
 0.029342
 0.010296
 0.008747
 0.018397
 0.026770
 0.000775
 0.005648
 0.026037
 0.029748
 0.030664
 0.019726
 0.012195
 0.010670
 0.007622
 -0.013350
 0.006081
 0.017581
 0.005614
 0.019062
 0.033597
 0.028223
 0.013837
 0.003529
 -0.006312
 0.002467
 -0.006971
 -0.022369
 -0.032406
 -0.022063
 0.003311
 0.020046
 0.034224
 0.029231
 0.010745
 0.002144
 -0.001645
 -0.018856
 -0.016062
 -0.016885
 -0.003548
 -0.008785
 -0.026993
 0.037086
 -0.400307
 -2.507698
 -3.671247
 -4.587185
 -5.404315
 -6.186750
 -6.979148
 -7.827120
 -8.774820
 -9.247758
 -8.774773
 -7.827006
 -6.978952
 -6.186474
 -5.404021
 -4.587114
 -3.672264
 -2.512786
 -0.396179
 0.079860
 -0.001480
 -0.000871
 0.015322
 0.016188
 0.008130
 0.001306
 -0.023807
 -0.027373
 -0.008051
 -0.004723
 -0.011457
 -0.028923
 -0.040686
 -0.017935
 0.024168
 0.022637
 0.000222
 0.004094
 0.001183
 -0.013677
 0.023665
 0.042191
 0.030931
 0.004461
 -0.006886
 -0.007732
 0.007857
 -0.000351
 0.015713
 -0.003288
 -0.031397
 -0.036986
 -0.035276
 -0.029733
 0.030647
 0.119690
 -0.284425
 -1.572634
 -2.237132
 -2.020443
 -2.145128
 -1.995859
 -1.566983
 -0.624587
 0.050014
 0.041608
 -0.026809
 -0.025716
 0.012003
 0.009194
 -0.013905
 -0.007810
 -0.002035
 0.015211
 0.012260
 -0.007405
 -0.031210
 -0.027027
 0.004014
 -0.009980
 -0.020254
 -0.007696
 -0.019939
 -0.025145
 -0.002915
 0.017189
 0.013190
 0.000944
 0.017582
 0.024292
 -0.011383
 -0.015316
 -0.005448
 0.002023
 0.004933
 0.007907
 0.011654
 0.026388
 0.019864
 -0.005387
 0.003036
 0.025237
 0.019313
 -0.003973
 0.017726
 0.020310
 0.003222
 -0.008832
 0.005380
 0.006319
 0.005617
 0.010791
 0.005411
 -0.004344
 0.010022
 0.009139
 -0.001463
 -0.002475
 0.011829
 0.028357
 0.017463
 0.005328
 -0.012684
 -0.019606
 -0.001866
 0.012857
 -0.001377
 0.037441
 -0.213700
 -2.192040
 -3.457898
 -4.381777
 -5.178322
 -5.915044
 -6.619719
 -7.289512
 -7.827162
 -8.041270
 -7.827100
 -7.289376
 -6.619492
 -5.914731
 -5.177992
 -4.381735
 -3.459368
 -2.200731
 -0.196614
 0.075563
 0.017445
 0.008836
 0.007345
 0.005718
 0.007793
 -0.013593
 -0.021927
 -0.026777
 0.003924
 0.009916
 -0.013992
 -0.037589
 -0.045343
 -0.013969
 0.025767
 0.019718
 -0.018497
 -0.019995
 -0.002590
 0.001384
 0.012562
 0.035264
 0.023441
 -0.014152
 -0.017355
 -0.004495
 -0.002880
 -0.014613
 0.004030
 -0.001362
 -0.002678
 -0.008328
 -0.000159
 -0.012001
 0.010235
 0.067653
 0.007495
 -0.735035
 -1.621900
 -1.032905
 -1.214054
 -1.020808
 -0.469478
 0.000790
 0.085216
 0.031795
 -0.014807
 -0.001223
 0.021026
 -0.003085
 -0.005918
 0.005236
 0.010053
 0.026452
 0.028745
 0.005717
 -0.016149
 -0.030642
 -0.032025
 -0.018445
 0.011054
 0.030437
 0.020551
 0.009021
 -0.008791
 -0.010963
 0.002559
 0.004713
 0.000398
 0.007722
 -0.022320
 -0.024793
 -0.010444
 -0.019778
 -0.027049
 -0.017299
 -0.008550
 -0.003533
 0.000049
 -0.012331
 -0.013576
 -0.004378
 0.014850
 -0.004700
 0.013282
 0.017362
 -0.007446
 -0.016774
 0.002673
 0.000638
 0.002177
 0.008333
 0.011056
 0.010730
 0.007851
 0.001028
 -0.021176
 -0.043450
 -0.018106
 0.022904
 0.029832
 0.008224
 -0.006524
 -0.004169
 0.016803
 -0.000002
 -0.001115
 0.032828
 -0.035662
 -1.546388
 -3.098413
 -4.041523
 -4.816048
 -5.498219
 -6.106131
 -6.619831
 -6.979308
 -7.110538
 -6.979220
 -6.619639
 -6.105807
 -5.497735
 -4.815389
 -4.040809
 -3.098818
 -1.556793
 -0.024358
 0.063981
 0.032207
 0.013969
 -0.002317
 -0.011926
 -0.004650
 -0.006711
 0.000622
 -0.007262
 -0.010485
 -0.000690
 0.002756
 -0.002843
 -0.003228
 0.012690
 0.034103
 0.009748
 -0.004261
 -0.023434
 -0.014057
 -0.012708
 -0.022852
 -0.010241
 -0.016799
 -0.026727
 -0.016498
 0.006085
 -0.005952
 -0.010427
 -0.005612
 -0.006364
 -0.005078
 0.008791
 0.019266
 -0.001429
 0.017136
 0.029079
 0.044393
 -0.037613
 -0.486551
 0.043995
 0.019031
 0.042869
 0.081942
 0.055451
 0.030124
 0.012836
 0.003627
 0.018926
 0.014255
 -0.001762
 0.010803
 0.003552
 -0.016661
 0.005647
 0.038823
 0.036803
 0.016026
 -0.009303
 -0.023883
 -0.020692
 0.013745
 0.025733
 0.014846
 0.004491
 -0.005655
 -0.028943
 -0.015229
 0.001083
 0.000581
 -0.006297
 -0.019010
 -0.011303
 -0.004741
 -0.015174
 -0.003547
 -0.009460
 -0.014584
 -0.032648
 -0.033837
 -0.016657
 -0.010430
 -0.018086
 0.008664
 0.010618
 0.008651
 0.022388
 -0.002311
 -0.032542
 -0.030158
 -0.030836
 -0.023412
 -0.011540
 0.015293
 0.028604
 0.014862
 -0.005524
 -0.025321
 -0.034211
 -0.030060
 -0.003812
 0.010625
 0.001545
 -0.005022
 0.002149
 0.016694
 0.000264
 -0.033296
 -0.016920
 0.034866
 -0.648379
 -2.544948
 -3.556078
 -4.326990
 -4.965640
 -5.498405
 -5.915392
 -6.187175
 -6.282250
 -6.187043
 -5.915098
 -5.497894
 -4.964813
 -4.325637
 -3.553576
 -2.540666
 -0.674616
 0.047625
 0.028742
 0.012274
 0.015944
 -0.004067
 -0.009815
 -0.009167
 0.000380
 0.012134
 -0.006604
 -0.008871
 0.010595
 0.016337
 0.022158
 0.018089
 0.012013
 0.022919
 0.016663
 -0.012408
 -0.003596
 0.007630
 -0.024423
 -0.039694
 -0.035031
 -0.015105
 -0.011611
 -0.016788
 -0.020789
 0.002408
 -0.003149
 -0.012424
 0.001538
 -0.007195
 -0.008593
 -0.002804
 -0.004302
 0.012353
 0.021104
 0.008174
 0.051612
 0.078668
 0.043013
 0.064459
 0.064421
 0.026414
 -0.010274
 -0.010947
 -0.020300
 -0.013495
 0.003129
 -0.005015
 -0.019522
 -0.010020
 -0.001691
 -0.020994
 0.008207
 0.034128
 0.028179
 0.018974
 -0.006346
 -0.005333
 -0.006145
 -0.004281
 0.002803
 -0.017218
 -0.015635
 -0.004825
 -0.019758
 -0.011704
 -0.014301
 -0.010307
 -0.007070
 -0.008725
 0.005314
 -0.000637
 0.010416
 0.027384
 0.024210
 -0.013571
 -0.031851
 -0.027091
 -0.008590
 -0.003468
 -0.020825
 -0.020293
 0.006443
 0.014340
 0.033577
 0.004945
 -0.034296
 -0.047499
 -0.042644
 -0.028834
 -0.027269
 -0.008155
 0.003011
 -0.001270
 -0.005020
 0.002509
 0.001835
 -0.019070
 -0.019023
 0.005455
 0.009175
 -0.008518
 -0.007265
 0.006217
 -0.001046
 -0.032113
 -0.033815
 0.027202
 -0.082332
 -1.492846
 -2.887828
 -3.701646
 -4.327006
 -4.816520
 -5.179163
 -5.405327
 -5.482494
 -5.405135
 -5.178709
 -4.815683
 -4.325603
 -3.699198
 -2.882298
 -1.462145
 -0.109589
 0.014763
 -0.001052
 0.019102
 0.013252
 -0.004173
 0.009906
 -0.004896
 -0.016350
 -0.000433
 0.016017
 0.012552
 0.009638
 0.020341
 0.013953
 -0.008902
 -0.023474
 -0.006094
 0.011499
 -0.014672
 -0.003437
 0.009360
 -0.021647
 -0.044206
 -0.033818
 0.007403
 0.010373
 -0.025673
 -0.035009
 -0.009079
 -0.005875
 -0.015385
 0.012534
 0.025649
 -0.006075
 -0.022676
 -0.030711
 -0.010800
 0.016754
 0.005133
 0.009649
 0.028226
 0.004674
 0.013170
 0.017041
 0.001405
 -0.008503
 -0.021550
 -0.031589
 -0.024986
 -0.001572
 -0.011885
 -0.030340
 -0.009784
 0.006665
 -0.003749
 0.013799
 0.010944
 -0.002188
 0.011230
 -0.005551
 -0.008653
 0.005676
 0.020143
 0.018775
 0.011417
 0.013959
 0.021064
 0.004968
 0.003873
 -0.013110
 -0.025353
 -0.013088
 -0.009878
 0.014333
 0.018895
 0.016006
 0.012156
 0.017324
 0.002773
 -0.016148
 -0.005385
 0.005733
 -0.004371
 -0.038290
 -0.037422
 -0.001171
 0.029403
 0.040960
 0.026159
 -0.006558
 -0.030862
 -0.023935
 -0.021036
 -0.030805
 -0.029983
 -0.016415
 0.006177
 0.014921
 0.003153
 -0.012482
 -0.024538
 -0.003558
 0.023029
 0.003631
 -0.010280
 -0.010655
 0.017390
 0.016139
 0.004073
 -0.012312
 0.024693
 0.067715
 -0.301129
 -1.772712
 -2.885322
 -3.555399
 -4.042587
 -4.383798
 -4.589578
 -4.658674
 -4.589331
 -4.383108
 -4.041126
 -3.552833
 -2.881076
 -1.760702
 -0.291818
 0.038901
 0.004442
 0.013316
 0.023211
 0.000202
 0.000893
 0.011785
 0.002831
 -0.024199
 0.000113
 0.024887
 0.015848
 -0.001526
 -0.013979
 -0.013866
 -0.014088
 -0.014163
 0.006813
 0.005566
 -0.011970
 -0.003776
 -0.005024
 -0.000688
 -0.010625
 -0.028894
 -0.010905
 0.008002
 0.006736
 -0.015154
 -0.015554
 -0.024503
 -0.021445
 0.012418
 0.027604
 0.014879
 -0.017445
 -0.024681
 -0.009268
 0.017615
 0.010524
 0.014179
 0.004059
 0.010582
 0.015271
 -0.009833
 -0.019340
 0.003581
 0.010340
 0.004234
 0.002726
 -0.008772
 -0.000782
 -0.007460
 0.008802
 0.015314
 0.019972
 0.008784
 -0.008284
 -0.013578
 0.008380
 0.006117
 -0.003161
 0.021316
 0.031074
 0.025976
 0.020304
 0.028952
 0.029321
 0.015992
 0.006310
 0.004998
 -0.019758
 -0.011788
 0.000892
 0.021549
 0.020591
 0.000904
 -0.004539
 0.005166
 0.005452
 0.001159
 0.006755
 0.023254
 0.002250
 -0.030089
 -0.023547
 -0.002423
 0.017508
 0.030857
 0.020338
 -0.010786
 -0.016537
 0.006637
 -0.001074
 -0.004118
 -0.003928
 0.020568
 0.026978
 0.011661
 0.001677
 -0.020203
 -0.018916
 0.012538
 0.028314
 0.016299
 0.003688
 0.014076
 0.016905
 0.022485
 -0.002879
 -0.005210
 0.009152
 0.055376
 0.047121
 -0.284069
 -1.463074
 -2.542892
 -3.101898
 -3.463502
 -3.677280
 -3.748142
 -3.677158
 -3.462436
 -3.098737
 -2.535640
 -1.448139
 -0.281919
 0.019295
 0.004791
 0.013249
 0.029868
 0.017731
 -0.006754
 0.002867
 0.009633
 -0.011578
 -0.010930
 0.005319
 0.009349
 0.003878
 -0.003379
 -0.022324
 -0.006116
 0.013334
 0.018387
 0.013053
 -0.002895
 -0.020586
 -0.011511
 0.002047
 0.023461
 0.023217
 -0.022185
 -0.025749
 0.015410
 0.036326
 0.014778
 -0.008539
 -0.013574
 0.004473
 0.014326
 0.010440
 0.003386
 0.005047
 0.000104
 -0.013538
 0.005532
 0.003027